M 0.20000 0 (0.00, 0.00, 0.00), (100.00, 460.00), 155.00
M 0.20000 1 (0.00, 0.00, 0.00), (10.00, 235.00), 130.00
M 0.20000 2 (0.00, 0.00, 0.00), (250.00, 347.00), 140.00
M 0.20000 3 (0.00, 0.00, 0.00), (100.00, 10.00), 130.00
M 0.20000 4 (0.00, 0.00, 0.00), (250.00, 122.00), 100.00
M 0.20000 5 (0.00, 0.00, 0.00), (500.00, 122.00), 165.00
M 0.20000 6 (0.00, 0.00, 0.00), (500.00, 347.00), 190.00
M 0.20000 7 (0.00, 0.00, 0.00), (750.00, 347.00), 255.00
M 0.20000 8 (0.00, 0.00, 0.00), (750.00, 122.00), 240.00
s 5.000000000 _0_ AGT  --- 0 cbr 500 [0 0 0 0] ------- [0:1 7:0 32 0] [0] 0 0
r 5.000000000 _0_ RTR  --- 0 cbr 500 [0 0 0 0] ------- [0:1 7:0 32 0] [0] 0 0
s 5.000000000 _0_ RTR  --- 0 AODV 48 [0 0 0 0] ------- [0:255 -1:255 30 0] [0x2 1 1 [7 0] [0 4]] (REQUEST)
s 5.000635000 _0_ MAC  --- 0 AODV 106 [0 ffffffff 0 800] ------- [0:255 -1:255 30 0] [0x2 1 1 [7 0] [0 4]] (REQUEST)
r 5.000936959 _2_ MAC  --- 0 AODV 48 [0 ffffffff 0 800] ------- [0:255 -1:255 30 0] [0x2 1 1 [7 0] [0 4]] (REQUEST)
r 5.000937141 _1_ MAC  --- 0 AODV 48 [0 ffffffff 0 800] ------- [0:255 -1:255 30 0] [0x2 1 1 [7 0] [0 4]] (REQUEST)
r 5.000961959 _2_ RTR  --- 0 AODV 48 [0 ffffffff 0 800] ------- [0:255 -1:255 30 0] [0x2 1 1 [7 0] [0 4]] (REQUEST)
r 5.000962141 _1_ RTR  --- 0 AODV 48 [0 ffffffff 0 800] ------- [0:255 -1:255 30 0] [0x2 1 1 [7 0] [0 4]] (REQUEST)
s 5.004052750 _2_ RTR  --- 0 AODV 48 [0 ffffffff 0 800] ------- [2:255 -1:255 29 0] [0x2 2 1 [7 0] [0 4]] (REQUEST)
s 5.004167750 _2_ MAC  --- 0 AODV 106 [0 ffffffff 2 800] ------- [2:255 -1:255 29 0] [0x2 2 1 [7 0] [0 4]] (REQUEST)
r 5.004469709 _0_ MAC  --- 0 AODV 48 [0 ffffffff 2 800] ------- [2:255 -1:255 29 0] [0x2 2 1 [7 0] [0 4]] (REQUEST)
r 5.004469833 _4_ MAC  --- 0 AODV 48 [0 ffffffff 2 800] ------- [2:255 -1:255 29 0] [0x2 2 1 [7 0] [0 4]] (REQUEST)
r 5.004469917 _6_ MAC  --- 0 AODV 48 [0 ffffffff 2 800] ------- [2:255 -1:255 29 0] [0x2 2 1 [7 0] [0 4]] (REQUEST)
r 5.004494709 _0_ RTR  --- 0 AODV 48 [0 ffffffff 2 800] ------- [2:255 -1:255 29 0] [0x2 2 1 [7 0] [0 4]] (REQUEST)
r 5.004494833 _4_ RTR  --- 0 AODV 48 [0 ffffffff 2 800] ------- [2:255 -1:255 29 0] [0x2 2 1 [7 0] [0 4]] (REQUEST)
r 5.004494917 _6_ RTR  --- 0 AODV 48 [0 ffffffff 2 800] ------- [2:255 -1:255 29 0] [0x2 2 1 [7 0] [0 4]] (REQUEST)
s 5.007075713 _4_ RTR  --- 0 AODV 48 [0 ffffffff 2 800] ------- [4:255 -1:255 28 0] [0x2 3 1 [7 0] [0 4]] (REQUEST)
s 5.007390713 _4_ MAC  --- 0 AODV 106 [0 ffffffff 4 800] ------- [4:255 -1:255 28 0] [0x2 3 1 [7 0] [0 4]] (REQUEST)
r 5.007692670 _3_ MAC  --- 0 AODV 48 [0 ffffffff 4 800] ------- [4:255 -1:255 28 0] [0x2 3 1 [7 0] [0 4]] (REQUEST)
r 5.007692796 _2_ MAC  --- 0 AODV 48 [0 ffffffff 4 800] ------- [4:255 -1:255 28 0] [0x2 3 1 [7 0] [0 4]] (REQUEST)
r 5.007692879 _5_ MAC  --- 0 AODV 48 [0 ffffffff 4 800] ------- [4:255 -1:255 28 0] [0x2 3 1 [7 0] [0 4]] (REQUEST)
r 5.007717670 _3_ RTR  --- 0 AODV 48 [0 ffffffff 4 800] ------- [4:255 -1:255 28 0] [0x2 3 1 [7 0] [0 4]] (REQUEST)
r 5.007717796 _2_ RTR  --- 0 AODV 48 [0 ffffffff 4 800] ------- [4:255 -1:255 28 0] [0x2 3 1 [7 0] [0 4]] (REQUEST)
r 5.007717879 _5_ RTR  --- 0 AODV 48 [0 ffffffff 4 800] ------- [4:255 -1:255 28 0] [0x2 3 1 [7 0] [0 4]] (REQUEST)
s 5.008581773 _6_ RTR  --- 0 AODV 48 [0 ffffffff 2 800] ------- [6:255 -1:255 28 0] [0x2 3 1 [7 0] [0 4]] (REQUEST)
s 5.008936773 _6_ MAC  --- 0 AODV 106 [0 ffffffff 6 800] ------- [6:255 -1:255 28 0] [0x2 3 1 [7 0] [0 4]] (REQUEST)
r 5.009238857 _5_ MAC  --- 0 AODV 48 [0 ffffffff 6 800] ------- [6:255 -1:255 28 0] [0x2 3 1 [7 0] [0 4]] (REQUEST)
r 5.009238940 _2_ MAC  --- 0 AODV 48 [0 ffffffff 6 800] ------- [6:255 -1:255 28 0] [0x2 3 1 [7 0] [0 4]] (REQUEST)
r 5.009238940 _7_ MAC  --- 0 AODV 48 [0 ffffffff 6 800] ------- [6:255 -1:255 28 0] [0x2 3 1 [7 0] [0 4]] (REQUEST)
r 5.009263857 _5_ RTR  --- 0 AODV 48 [0 ffffffff 6 800] ------- [6:255 -1:255 28 0] [0x2 3 1 [7 0] [0 4]] (REQUEST)
r 5.009263940 _2_ RTR  --- 0 AODV 48 [0 ffffffff 6 800] ------- [6:255 -1:255 28 0] [0x2 3 1 [7 0] [0 4]] (REQUEST)
r 5.009263940 _7_ RTR  --- 0 AODV 48 [0 ffffffff 6 800] ------- [6:255 -1:255 28 0] [0x2 3 1 [7 0] [0 4]] (REQUEST)
s 5.009263940 _7_ RTR  --- 0 AODV 44 [0 0 0 0] ------- [7:255 0:255 30 6] [0x4 1 [7 4] 10.000000] (REPLY)
s 5.009325376 _1_ RTR  --- 0 AODV 48 [0 ffffffff 0 800] ------- [1:255 -1:255 29 0] [0x2 2 1 [7 0] [0 4]] (REQUEST)
s 5.009818940 _7_ MAC  --- 0 ARP 86 [0 ffffffff 7 806] ------- [REQUEST 7/7 0/6]
s 5.009933782 _1_ MAC  --- 0 AODV 106 [0 ffffffff 1 800] ------- [1:255 -1:255 29 0] [0x2 2 1 [7 0] [0 4]] (REQUEST)
r 5.010094357 _8_ MAC  --- 0 ARP 28 [0 ffffffff 7 806] ------- [REQUEST 7/7 0/6]
r 5.010094440 _6_ MAC  --- 0 ARP 28 [0 ffffffff 7 806] ------- [REQUEST 7/7 0/6]
r 5.010235923 _3_ MAC  --- 0 AODV 48 [0 ffffffff 1 800] ------- [1:255 -1:255 29 0] [0x2 2 1 [7 0] [0 4]] (REQUEST)
r 5.010235923 _0_ MAC  --- 0 AODV 48 [0 ffffffff 1 800] ------- [1:255 -1:255 29 0] [0x2 2 1 [7 0] [0 4]] (REQUEST)
r 5.010260923 _3_ RTR  --- 0 AODV 48 [0 ffffffff 1 800] ------- [1:255 -1:255 29 0] [0x2 2 1 [7 0] [0 4]] (REQUEST)
r 5.010260923 _0_ RTR  --- 0 AODV 48 [0 ffffffff 1 800] ------- [1:255 -1:255 29 0] [0x2 2 1 [7 0] [0 4]] (REQUEST)
s 5.010950458 _6_ MAC  --- 0 ARP 86 [dd 7 6 806] ------- [REPLY 6/6 7/7]
r 5.011152476 _7_ MAC  --- 0 ARP 28 [dd 7 6 806] ------- [REPLY 6/6 7/7]
s 5.011162476 _7_ MAC  --- 0 ACK 38 [0 6 0 0] 
r 5.011373976 _6_ MAC  --- 0 ACK 38 [0 6 0 0] 
s 5.011483143 _7_ MAC  --- 0 AODV 102 [dd 6 7 800] ------- [7:255 0:255 30 6] [0x4 1 [7 4] 10.000000] (REPLY)
r 5.011687532 _6_ MAC  --- 0 AODV 44 [dd 6 7 800] ------- [7:255 0:255 30 6] [0x4 1 [7 4] 10.000000] (REPLY)
s 5.011697532 _6_ MAC  --- 0 ACK 38 [0 7 0 0] 
r 5.011712532 _6_ RTR  --- 0 AODV 44 [dd 6 7 800] ------- [7:255 0:255 30 6] [0x4 1 [7 4] 10.000000] (REPLY)
f 5.011712532 _6_ RTR  --- 0 AODV 44 [dd 6 7 800] ------- [7:255 0:255 29 2] [0x4 2 [7 4] 10.000000] (REPLY)
s 5.011773070 _5_ RTR  --- 0 AODV 48 [0 ffffffff 4 800] ------- [5:255 -1:255 27 0] [0x2 4 1 [7 0] [0 4]] (REQUEST)
r 5.011909032 _7_ MAC  --- 0 ACK 38 [0 7 0 0] 
s 5.012238198 _6_ MAC  --- 0 ARP 86 [0 ffffffff 6 806] ------- [REQUEST 6/6 0/2]
r 5.012513615 _5_ MAC  --- 0 ARP 28 [0 ffffffff 6 806] ------- [REQUEST 6/6 0/2]
r 5.012513698 _2_ MAC  --- 0 ARP 28 [0 ffffffff 6 806] ------- [REQUEST 6/6 0/2]
r 5.012513698 _7_ MAC  --- 0 ARP 28 [0 ffffffff 6 806] ------- [REQUEST 6/6 0/2]
s 5.012928698 _2_ MAC  --- 0 ARP 86 [dd 6 2 806] ------- [REPLY 2/2 6/6]
r 5.013130717 _6_ MAC  --- 0 ARP 28 [dd 6 2 806] ------- [REPLY 2/2 6/6]
s 5.013140717 _6_ MAC  --- 0 ACK 38 [0 2 0 0] 
r 5.013352217 _2_ MAC  --- 0 ACK 38 [0 2 0 0] 
s 5.013645005 _5_ MAC  --- 0 AODV 106 [0 ffffffff 5 800] ------- [5:255 -1:255 27 0] [0x2 4 1 [7 0] [0 4]] (REQUEST)
r 5.013947088 _6_ MAC  --- 0 AODV 48 [0 ffffffff 5 800] ------- [5:255 -1:255 27 0] [0x2 4 1 [7 0] [0 4]] (REQUEST)
r 5.013947171 _4_ MAC  --- 0 AODV 48 [0 ffffffff 5 800] ------- [5:255 -1:255 27 0] [0x2 4 1 [7 0] [0 4]] (REQUEST)
r 5.013947171 _8_ MAC  --- 0 AODV 48 [0 ffffffff 5 800] ------- [5:255 -1:255 27 0] [0x2 4 1 [7 0] [0 4]] (REQUEST)
r 5.013972088 _6_ RTR  --- 0 AODV 48 [0 ffffffff 5 800] ------- [5:255 -1:255 27 0] [0x2 4 1 [7 0] [0 4]] (REQUEST)
r 5.013972171 _4_ RTR  --- 0 AODV 48 [0 ffffffff 5 800] ------- [5:255 -1:255 27 0] [0x2 4 1 [7 0] [0 4]] (REQUEST)
r 5.013972171 _8_ RTR  --- 0 AODV 48 [0 ffffffff 5 800] ------- [5:255 -1:255 27 0] [0x2 4 1 [7 0] [0 4]] (REQUEST)
s 5.014017088 _6_ MAC  --- 0 AODV 102 [dd 2 6 800] ------- [7:255 0:255 29 2] [0x4 2 [7 4] 10.000000] (REPLY)
r 5.014221477 _2_ MAC  --- 0 AODV 44 [dd 2 6 800] ------- [7:255 0:255 29 2] [0x4 2 [7 4] 10.000000] (REPLY)
s 5.014231477 _2_ MAC  --- 0 ACK 38 [0 6 0 0] 
r 5.014246477 _2_ RTR  --- 0 AODV 44 [dd 2 6 800] ------- [7:255 0:255 29 2] [0x4 2 [7 4] 10.000000] (REPLY)
f 5.014246477 _2_ RTR  --- 0 AODV 44 [dd 2 6 800] ------- [7:255 0:255 28 0] [0x4 3 [7 4] 10.000000] (REPLY)
r 5.014442977 _6_ MAC  --- 0 ACK 38 [0 6 0 0] 
s 5.014872144 _2_ MAC  --- 0 ARP 86 [0 ffffffff 2 806] ------- [REQUEST 2/2 0/0]
s 5.015000000 _0_ AGT  --- 1 cbr 500 [0 0 0 0] ------- [0:1 7:0 32 0] [1] 0 0
r 5.015000000 _0_ RTR  --- 1 cbr 500 [0 0 0 0] ------- [0:1 7:0 32 0] [1] 0 0
r 5.015147436 _0_ MAC  --- 0 ARP 28 [0 ffffffff 2 806] ------- [REQUEST 2/2 0/0]
r 5.015147560 _4_ MAC  --- 0 ARP 28 [0 ffffffff 2 806] ------- [REQUEST 2/2 0/0]
r 5.015147644 _6_ MAC  --- 0 ARP 28 [0 ffffffff 2 806] ------- [REQUEST 2/2 0/0]
s 5.015739020 _8_ RTR  --- 0 AODV 48 [0 ffffffff 5 800] ------- [8:255 -1:255 26 0] [0x2 5 1 [7 0] [0 4]] (REQUEST)
s 5.015742436 _0_ MAC  --- 0 ARP 86 [dd 2 0 806] ------- [REPLY 0/0 2/2]
r 5.015944247 _2_ MAC  --- 0 ARP 28 [dd 2 0 806] ------- [REPLY 0/0 2/2]
s 5.015954247 _2_ MAC  --- 0 ACK 38 [0 0 0 0] 
r 5.016165540 _0_ MAC  --- 0 ACK 38 [0 0 0 0] 
s 5.016214914 _2_ MAC  --- 0 AODV 102 [dd 0 2 800] ------- [7:255 0:255 28 0] [0x4 3 [7 4] 10.000000] (REPLY)
r 5.016419096 _0_ MAC  --- 0 AODV 44 [dd 0 2 800] ------- [7:255 0:255 28 0] [0x4 3 [7 4] 10.000000] (REPLY)
s 5.016429096 _0_ MAC  --- 0 ACK 38 [0 2 0 0] 
r 5.016444096 _0_ RTR  --- 0 AODV 44 [dd 0 2 800] ------- [7:255 0:255 28 0] [0x4 3 [7 4] 10.000000] (REPLY)
s 5.016444096 _0_ RTR  --- 0 cbr 520 [0 0 0 0] ------- [0:1 7:0 30 2] [0] 0 0
r 5.016640388 _2_ MAC  --- 0 ACK 38 [0 2 0 0] 
s 5.016767125 _3_ RTR  --- 0 AODV 48 [0 ffffffff 4 800] ------- [3:255 -1:255 27 0] [0x2 4 1 [7 0] [0 4]] (REQUEST)
s 5.016994297 _8_ MAC  --- 0 AODV 106 [0 ffffffff 8 800] ------- [8:255 -1:255 26 0] [0x2 5 1 [7 0] [0 4]] (REQUEST)
s 5.017155262 _3_ MAC  --- 0 AODV 106 [0 ffffffff 3 800] ------- [3:255 -1:255 27 0] [0x2 4 1 [7 0] [0 4]] (REQUEST)
D 5.017156647 _5_ MAC  COL 0 AODV 106 [0 ffffffff 8 800] ------- [8:255 -1:255 26 0] [0x2 5 1 [7 0] [0 4]] (REQUEST)
r 5.017296381 _7_ MAC  --- 0 AODV 48 [0 ffffffff 8 800] ------- [8:255 -1:255 26 0] [0x2 5 1 [7 0] [0 4]] (REQUEST)
r 5.017321381 _7_ RTR  --- 0 AODV 48 [0 ffffffff 8 800] ------- [8:255 -1:255 26 0] [0x2 5 1 [7 0] [0 4]] (REQUEST)
D 5.017457220 _4_ MAC  COL 0 AODV 106 [0 ffffffff 3 800] ------- [3:255 -1:255 27 0] [0x2 4 1 [7 0] [0 4]] (REQUEST)
r 5.017457403 _1_ MAC  --- 0 AODV 48 [0 ffffffff 3 800] ------- [3:255 -1:255 27 0] [0x2 4 1 [7 0] [0 4]] (REQUEST)
r 5.017482403 _1_ RTR  --- 0 AODV 48 [0 ffffffff 3 800] ------- [3:255 -1:255 27 0] [0x2 4 1 [7 0] [0 4]] (REQUEST)
s 5.017972096 _0_ MAC  --- 0 cbr 578 [dd 2 0 800] ------- [0:1 7:0 30 2] [0] 0 0
r 5.018246796 _2_ MAC  --- 0 cbr 520 [dd 2 0 800] ------- [0:1 7:0 30 2] [0] 1 0
s 5.018256796 _2_ MAC  --- 0 ACK 38 [0 0 0 0] 
r 5.018271796 _2_ RTR  --- 0 cbr 520 [dd 2 0 800] ------- [0:1 7:0 30 2] [0] 1 0
f 5.018271796 _2_ RTR  --- 0 cbr 520 [dd 2 0 800] ------- [0:1 7:0 29 6] [0] 1 0
r 5.018468088 _0_ MAC  --- 0 ACK 38 [0 0 0 0] 
s 5.018537462 _2_ MAC  --- 0 cbr 578 [dd 6 2 800] ------- [0:1 7:0 29 6] [0] 1 0
r 5.018812370 _6_ MAC  --- 0 cbr 520 [dd 6 2 800] ------- [0:1 7:0 29 6] [0] 2 0
s 5.018822370 _6_ MAC  --- 0 ACK 38 [0 2 0 0] 
r 5.018837370 _6_ RTR  --- 0 cbr 520 [dd 6 2 800] ------- [0:1 7:0 29 6] [0] 2 0
f 5.018837370 _6_ RTR  --- 0 cbr 520 [dd 6 2 800] ------- [0:1 7:0 28 7] [0] 2 0
r 5.019033870 _2_ MAC  --- 0 ACK 38 [0 2 0 0] 
s 5.019643036 _6_ MAC  --- 0 cbr 578 [dd 7 6 800] ------- [0:1 7:0 28 7] [0] 2 0
r 5.019917944 _7_ MAC  --- 0 cbr 520 [dd 7 6 800] ------- [0:1 7:0 28 7] [0] 3 0
s 5.019927944 _7_ MAC  --- 0 ACK 38 [0 6 0 0] 
r 5.019942944 _7_ AGT  --- 0 cbr 520 [dd 7 6 800] ------- [0:1 7:0 28 7] [0] 3 0
r 5.020139444 _6_ MAC  --- 0 ACK 38 [0 6 0 0] 
s 5.026444096 _0_ RTR  --- 1 cbr 520 [0 0 0 0] ------- [0:1 7:0 30 2] [1] 0 0
s 5.026739096 _0_ MAC  --- 1 cbr 578 [dd 2 0 800] ------- [0:1 7:0 30 2] [1] 0 0
r 5.027013796 _2_ MAC  --- 1 cbr 520 [dd 2 0 800] ------- [0:1 7:0 30 2] [1] 1 0
s 5.027023796 _2_ MAC  --- 0 ACK 38 [0 0 0 0] 
r 5.027038796 _2_ RTR  --- 1 cbr 520 [dd 2 0 800] ------- [0:1 7:0 30 2] [1] 1 0
f 5.027038796 _2_ RTR  --- 1 cbr 520 [dd 2 0 800] ------- [0:1 7:0 29 6] [1] 1 0
r 5.027235088 _0_ MAC  --- 0 ACK 38 [0 0 0 0] 
s 5.027364462 _2_ MAC  --- 1 cbr 578 [dd 6 2 800] ------- [0:1 7:0 29 6] [1] 1 0
r 5.027639370 _6_ MAC  --- 1 cbr 520 [dd 6 2 800] ------- [0:1 7:0 29 6] [1] 2 0
s 5.027649370 _6_ MAC  --- 0 ACK 38 [0 2 0 0] 
r 5.027664370 _6_ RTR  --- 1 cbr 520 [dd 6 2 800] ------- [0:1 7:0 29 6] [1] 2 0
f 5.027664370 _6_ RTR  --- 1 cbr 520 [dd 6 2 800] ------- [0:1 7:0 28 7] [1] 2 0
r 5.027860870 _2_ MAC  --- 0 ACK 38 [0 2 0 0] 
s 5.028410036 _6_ MAC  --- 1 cbr 578 [dd 7 6 800] ------- [0:1 7:0 28 7] [1] 2 0
r 5.028684944 _7_ MAC  --- 1 cbr 520 [dd 7 6 800] ------- [0:1 7:0 28 7] [1] 3 0
s 5.028694944 _7_ MAC  --- 0 ACK 38 [0 6 0 0] 
r 5.028709944 _7_ AGT  --- 1 cbr 520 [dd 7 6 800] ------- [0:1 7:0 28 7] [1] 3 0
r 5.028906444 _6_ MAC  --- 0 ACK 38 [0 6 0 0] 
s 5.030000000 _0_ AGT  --- 2 cbr 500 [0 0 0 0] ------- [0:1 7:0 32 0] [2] 0 0
r 5.030000000 _0_ RTR  --- 2 cbr 500 [0 0 0 0] ------- [0:1 7:0 32 0] [2] 0 0
s 5.030000000 _0_ RTR  --- 2 cbr 520 [0 0 0 0] ------- [0:1 7:0 30 2] [2] 0 0
s 5.030355000 _0_ MAC  --- 2 cbr 578 [dd 2 0 800] ------- [0:1 7:0 30 2] [2] 0 0
r 5.030629700 _2_ MAC  --- 2 cbr 520 [dd 2 0 800] ------- [0:1 7:0 30 2] [2] 1 0
s 5.030639700 _2_ MAC  --- 0 ACK 38 [0 0 0 0] 
r 5.030654700 _2_ RTR  --- 2 cbr 520 [dd 2 0 800] ------- [0:1 7:0 30 2] [2] 1 0
f 5.030654700 _2_ RTR  --- 2 cbr 520 [dd 2 0 800] ------- [0:1 7:0 29 6] [2] 1 0
r 5.030850993 _0_ MAC  --- 0 ACK 38 [0 0 0 0] 
s 5.031280367 _2_ MAC  --- 2 cbr 578 [dd 6 2 800] ------- [0:1 7:0 29 6] [2] 1 0
r 5.031555274 _6_ MAC  --- 2 cbr 520 [dd 6 2 800] ------- [0:1 7:0 29 6] [2] 2 0
s 5.031565274 _6_ MAC  --- 0 ACK 38 [0 2 0 0] 
r 5.031580274 _6_ RTR  --- 2 cbr 520 [dd 6 2 800] ------- [0:1 7:0 29 6] [2] 2 0
f 5.031580274 _6_ RTR  --- 2 cbr 520 [dd 6 2 800] ------- [0:1 7:0 28 7] [2] 2 0
r 5.031776774 _2_ MAC  --- 0 ACK 38 [0 2 0 0] 
s 5.032205941 _6_ MAC  --- 2 cbr 578 [dd 7 6 800] ------- [0:1 7:0 28 7] [2] 2 0
r 5.032480848 _7_ MAC  --- 2 cbr 520 [dd 7 6 800] ------- [0:1 7:0 28 7] [2] 3 0
s 5.032490848 _7_ MAC  --- 0 ACK 38 [0 6 0 0] 
r 5.032505848 _7_ AGT  --- 2 cbr 520 [dd 7 6 800] ------- [0:1 7:0 28 7] [2] 3 0
r 5.032702348 _6_ MAC  --- 0 ACK 38 [0 6 0 0] 
s 5.045000000 _0_ AGT  --- 3 cbr 500 [0 0 0 0] ------- [0:1 7:0 32 0] [3] 0 0
r 5.045000000 _0_ RTR  --- 3 cbr 500 [0 0 0 0] ------- [0:1 7:0 32 0] [3] 0 0
s 5.045000000 _0_ RTR  --- 3 cbr 520 [0 0 0 0] ------- [0:1 7:0 30 2] [3] 0 0
s 5.045075000 _0_ MAC  --- 3 cbr 578 [dd 2 0 800] ------- [0:1 7:0 30 2] [3] 0 0
r 5.045349700 _2_ MAC  --- 3 cbr 520 [dd 2 0 800] ------- [0:1 7:0 30 2] [3] 1 0
s 5.045359700 _2_ MAC  --- 0 ACK 38 [0 0 0 0] 
r 5.045374700 _2_ RTR  --- 3 cbr 520 [dd 2 0 800] ------- [0:1 7:0 30 2] [3] 1 0
f 5.045374700 _2_ RTR  --- 3 cbr 520 [dd 2 0 800] ------- [0:1 7:0 29 6] [3] 1 0
r 5.045570993 _0_ MAC  --- 0 ACK 38 [0 0 0 0] 
s 5.045780367 _2_ MAC  --- 3 cbr 578 [dd 6 2 800] ------- [0:1 7:0 29 6] [3] 1 0
r 5.046055274 _6_ MAC  --- 3 cbr 520 [dd 6 2 800] ------- [0:1 7:0 29 6] [3] 2 0
s 5.046065274 _6_ MAC  --- 0 ACK 38 [0 2 0 0] 
r 5.046080274 _6_ RTR  --- 3 cbr 520 [dd 6 2 800] ------- [0:1 7:0 29 6] [3] 2 0
f 5.046080274 _6_ RTR  --- 3 cbr 520 [dd 6 2 800] ------- [0:1 7:0 28 7] [3] 2 0
r 5.046276774 _2_ MAC  --- 0 ACK 38 [0 2 0 0] 
s 5.046785941 _6_ MAC  --- 3 cbr 578 [dd 7 6 800] ------- [0:1 7:0 28 7] [3] 2 0
r 5.047060848 _7_ MAC  --- 3 cbr 520 [dd 7 6 800] ------- [0:1 7:0 28 7] [3] 3 0
s 5.047070848 _7_ MAC  --- 0 ACK 38 [0 6 0 0] 
r 5.047085848 _7_ AGT  --- 3 cbr 520 [dd 7 6 800] ------- [0:1 7:0 28 7] [3] 3 0
r 5.047282348 _6_ MAC  --- 0 ACK 38 [0 6 0 0] 
s 5.060000000 _0_ AGT  --- 4 cbr 500 [0 0 0 0] ------- [0:1 7:0 32 0] [4] 0 0
r 5.060000000 _0_ RTR  --- 4 cbr 500 [0 0 0 0] ------- [0:1 7:0 32 0] [4] 0 0
s 5.060000000 _0_ RTR  --- 4 cbr 520 [0 0 0 0] ------- [0:1 7:0 30 2] [4] 0 0
s 5.060215000 _0_ MAC  --- 4 cbr 578 [dd 2 0 800] ------- [0:1 7:0 30 2] [4] 0 0
r 5.060489700 _2_ MAC  --- 4 cbr 520 [dd 2 0 800] ------- [0:1 7:0 30 2] [4] 1 0
s 5.060499700 _2_ MAC  --- 0 ACK 38 [0 0 0 0] 
r 5.060514700 _2_ RTR  --- 4 cbr 520 [dd 2 0 800] ------- [0:1 7:0 30 2] [4] 1 0
f 5.060514700 _2_ RTR  --- 4 cbr 520 [dd 2 0 800] ------- [0:1 7:0 29 6] [4] 1 0
r 5.060710993 _0_ MAC  --- 0 ACK 38 [0 0 0 0] 
s 5.060960367 _2_ MAC  --- 4 cbr 578 [dd 6 2 800] ------- [0:1 7:0 29 6] [4] 1 0
r 5.061235274 _6_ MAC  --- 4 cbr 520 [dd 6 2 800] ------- [0:1 7:0 29 6] [4] 2 0
s 5.061245274 _6_ MAC  --- 0 ACK 38 [0 2 0 0] 
r 5.061260274 _6_ RTR  --- 4 cbr 520 [dd 6 2 800] ------- [0:1 7:0 29 6] [4] 2 0
f 5.061260274 _6_ RTR  --- 4 cbr 520 [dd 6 2 800] ------- [0:1 7:0 28 7] [4] 2 0
r 5.061456774 _2_ MAC  --- 0 ACK 38 [0 2 0 0] 
s 5.061945941 _6_ MAC  --- 4 cbr 578 [dd 7 6 800] ------- [0:1 7:0 28 7] [4] 2 0
r 5.062220848 _7_ MAC  --- 4 cbr 520 [dd 7 6 800] ------- [0:1 7:0 28 7] [4] 3 0
s 5.062230848 _7_ MAC  --- 0 ACK 38 [0 6 0 0] 
r 5.062245848 _7_ AGT  --- 4 cbr 520 [dd 7 6 800] ------- [0:1 7:0 28 7] [4] 3 0
r 5.062442348 _6_ MAC  --- 0 ACK 38 [0 6 0 0] 
s 5.075000000 _0_ AGT  --- 5 cbr 500 [0 0 0 0] ------- [0:1 7:0 32 0] [5] 0 0
r 5.075000000 _0_ RTR  --- 5 cbr 500 [0 0 0 0] ------- [0:1 7:0 32 0] [5] 0 0
s 5.075000000 _0_ RTR  --- 5 cbr 520 [0 0 0 0] ------- [0:1 7:0 30 2] [5] 0 0
s 5.075095000 _0_ MAC  --- 5 cbr 578 [dd 2 0 800] ------- [0:1 7:0 30 2] [5] 0 0
r 5.075369700 _2_ MAC  --- 5 cbr 520 [dd 2 0 800] ------- [0:1 7:0 30 2] [5] 1 0
s 5.075379700 _2_ MAC  --- 0 ACK 38 [0 0 0 0] 
r 5.075394700 _2_ RTR  --- 5 cbr 520 [dd 2 0 800] ------- [0:1 7:0 30 2] [5] 1 0
f 5.075394700 _2_ RTR  --- 5 cbr 520 [dd 2 0 800] ------- [0:1 7:0 29 6] [5] 1 0
r 5.075590993 _0_ MAC  --- 0 ACK 38 [0 0 0 0] 
s 5.075800367 _2_ MAC  --- 5 cbr 578 [dd 6 2 800] ------- [0:1 7:0 29 6] [5] 1 0
r 5.076075274 _6_ MAC  --- 5 cbr 520 [dd 6 2 800] ------- [0:1 7:0 29 6] [5] 2 0
s 5.076085274 _6_ MAC  --- 0 ACK 38 [0 2 0 0] 
r 5.076100274 _6_ RTR  --- 5 cbr 520 [dd 6 2 800] ------- [0:1 7:0 29 6] [5] 2 0
f 5.076100274 _6_ RTR  --- 5 cbr 520 [dd 6 2 800] ------- [0:1 7:0 28 7] [5] 2 0
r 5.076296774 _2_ MAC  --- 0 ACK 38 [0 2 0 0] 
s 5.076805941 _6_ MAC  --- 5 cbr 578 [dd 7 6 800] ------- [0:1 7:0 28 7] [5] 2 0
r 5.077080848 _7_ MAC  --- 5 cbr 520 [dd 7 6 800] ------- [0:1 7:0 28 7] [5] 3 0
s 5.077090848 _7_ MAC  --- 0 ACK 38 [0 6 0 0] 
r 5.077105848 _7_ AGT  --- 5 cbr 520 [dd 7 6 800] ------- [0:1 7:0 28 7] [5] 3 0
r 5.077302348 _6_ MAC  --- 0 ACK 38 [0 6 0 0] 
s 5.090000000 _0_ AGT  --- 6 cbr 500 [0 0 0 0] ------- [0:1 7:0 32 0] [6] 0 0
r 5.090000000 _0_ RTR  --- 6 cbr 500 [0 0 0 0] ------- [0:1 7:0 32 0] [6] 0 0
s 5.090000000 _0_ RTR  --- 6 cbr 520 [0 0 0 0] ------- [0:1 7:0 30 2] [6] 0 0
s 5.090635000 _0_ MAC  --- 6 cbr 578 [dd 2 0 800] ------- [0:1 7:0 30 2] [6] 0 0
r 5.090909700 _2_ MAC  --- 6 cbr 520 [dd 2 0 800] ------- [0:1 7:0 30 2] [6] 1 0
s 5.090919700 _2_ MAC  --- 0 ACK 38 [0 0 0 0] 
r 5.090934700 _2_ RTR  --- 6 cbr 520 [dd 2 0 800] ------- [0:1 7:0 30 2] [6] 1 0
f 5.090934700 _2_ RTR  --- 6 cbr 520 [dd 2 0 800] ------- [0:1 7:0 29 6] [6] 1 0
r 5.091130993 _0_ MAC  --- 0 ACK 38 [0 0 0 0] 
s 5.091340367 _2_ MAC  --- 6 cbr 578 [dd 6 2 800] ------- [0:1 7:0 29 6] [6] 1 0
r 5.091615274 _6_ MAC  --- 6 cbr 520 [dd 6 2 800] ------- [0:1 7:0 29 6] [6] 2 0
s 5.091625274 _6_ MAC  --- 0 ACK 38 [0 2 0 0] 
r 5.091640274 _6_ RTR  --- 6 cbr 520 [dd 6 2 800] ------- [0:1 7:0 29 6] [6] 2 0
f 5.091640274 _6_ RTR  --- 6 cbr 520 [dd 6 2 800] ------- [0:1 7:0 28 7] [6] 2 0
r 5.091836774 _2_ MAC  --- 0 ACK 38 [0 2 0 0] 
s 5.092185941 _6_ MAC  --- 6 cbr 578 [dd 7 6 800] ------- [0:1 7:0 28 7] [6] 2 0
r 5.092460848 _7_ MAC  --- 6 cbr 520 [dd 7 6 800] ------- [0:1 7:0 28 7] [6] 3 0
s 5.092470848 _7_ MAC  --- 0 ACK 38 [0 6 0 0] 
r 5.092485848 _7_ AGT  --- 6 cbr 520 [dd 7 6 800] ------- [0:1 7:0 28 7] [6] 3 0
r 5.092682348 _6_ MAC  --- 0 ACK 38 [0 6 0 0] 
s 5.105000000 _0_ AGT  --- 7 cbr 500 [0 0 0 0] ------- [0:1 7:0 32 0] [7] 0 0
r 5.105000000 _0_ RTR  --- 7 cbr 500 [0 0 0 0] ------- [0:1 7:0 32 0] [7] 0 0
s 5.105000000 _0_ RTR  --- 7 cbr 520 [0 0 0 0] ------- [0:1 7:0 30 2] [7] 0 0
s 5.105555000 _0_ MAC  --- 7 cbr 578 [dd 2 0 800] ------- [0:1 7:0 30 2] [7] 0 0
r 5.105829700 _2_ MAC  --- 7 cbr 520 [dd 2 0 800] ------- [0:1 7:0 30 2] [7] 1 0
s 5.105839700 _2_ MAC  --- 0 ACK 38 [0 0 0 0] 
r 5.105854700 _2_ RTR  --- 7 cbr 520 [dd 2 0 800] ------- [0:1 7:0 30 2] [7] 1 0
f 5.105854700 _2_ RTR  --- 7 cbr 520 [dd 2 0 800] ------- [0:1 7:0 29 6] [7] 1 0
r 5.106050993 _0_ MAC  --- 0 ACK 38 [0 0 0 0] 
s 5.106100367 _2_ MAC  --- 7 cbr 578 [dd 6 2 800] ------- [0:1 7:0 29 6] [7] 1 0
r 5.106375274 _6_ MAC  --- 7 cbr 520 [dd 6 2 800] ------- [0:1 7:0 29 6] [7] 2 0
s 5.106385274 _6_ MAC  --- 0 ACK 38 [0 2 0 0] 
r 5.106400274 _6_ RTR  --- 7 cbr 520 [dd 6 2 800] ------- [0:1 7:0 29 6] [7] 2 0
f 5.106400274 _6_ RTR  --- 7 cbr 520 [dd 6 2 800] ------- [0:1 7:0 28 7] [7] 2 0
r 5.106596774 _2_ MAC  --- 0 ACK 38 [0 2 0 0] 
s 5.107005941 _6_ MAC  --- 7 cbr 578 [dd 7 6 800] ------- [0:1 7:0 28 7] [7] 2 0
r 5.107280848 _7_ MAC  --- 7 cbr 520 [dd 7 6 800] ------- [0:1 7:0 28 7] [7] 3 0
s 5.107290848 _7_ MAC  --- 0 ACK 38 [0 6 0 0] 
r 5.107305848 _7_ AGT  --- 7 cbr 520 [dd 7 6 800] ------- [0:1 7:0 28 7] [7] 3 0
r 5.107502348 _6_ MAC  --- 0 ACK 38 [0 6 0 0] 
s 5.120000000 _0_ AGT  --- 8 cbr 500 [0 0 0 0] ------- [0:1 7:0 32 0] [8] 0 0
r 5.120000000 _0_ RTR  --- 8 cbr 500 [0 0 0 0] ------- [0:1 7:0 32 0] [8] 0 0
s 5.120000000 _0_ RTR  --- 8 cbr 520 [0 0 0 0] ------- [0:1 7:0 30 2] [8] 0 0
s 5.120635000 _0_ MAC  --- 8 cbr 578 [dd 2 0 800] ------- [0:1 7:0 30 2] [8] 0 0
r 5.120909700 _2_ MAC  --- 8 cbr 520 [dd 2 0 800] ------- [0:1 7:0 30 2] [8] 1 0
s 5.120919700 _2_ MAC  --- 0 ACK 38 [0 0 0 0] 
r 5.120934700 _2_ RTR  --- 8 cbr 520 [dd 2 0 800] ------- [0:1 7:0 30 2] [8] 1 0
f 5.120934700 _2_ RTR  --- 8 cbr 520 [dd 2 0 800] ------- [0:1 7:0 29 6] [8] 1 0
r 5.121130993 _0_ MAC  --- 0 ACK 38 [0 0 0 0] 
s 5.121300367 _2_ MAC  --- 8 cbr 578 [dd 6 2 800] ------- [0:1 7:0 29 6] [8] 1 0
r 5.121575274 _6_ MAC  --- 8 cbr 520 [dd 6 2 800] ------- [0:1 7:0 29 6] [8] 2 0
s 5.121585274 _6_ MAC  --- 0 ACK 38 [0 2 0 0] 
r 5.121600274 _6_ RTR  --- 8 cbr 520 [dd 6 2 800] ------- [0:1 7:0 29 6] [8] 2 0
f 5.121600274 _6_ RTR  --- 8 cbr 520 [dd 6 2 800] ------- [0:1 7:0 28 7] [8] 2 0
r 5.121796774 _2_ MAC  --- 0 ACK 38 [0 2 0 0] 
s 5.122125941 _6_ MAC  --- 8 cbr 578 [dd 7 6 800] ------- [0:1 7:0 28 7] [8] 2 0
r 5.122400848 _7_ MAC  --- 8 cbr 520 [dd 7 6 800] ------- [0:1 7:0 28 7] [8] 3 0
s 5.122410848 _7_ MAC  --- 0 ACK 38 [0 6 0 0] 
r 5.122425848 _7_ AGT  --- 8 cbr 520 [dd 7 6 800] ------- [0:1 7:0 28 7] [8] 3 0
r 5.122622348 _6_ MAC  --- 0 ACK 38 [0 6 0 0] 
s 5.135000000 _0_ AGT  --- 9 cbr 500 [0 0 0 0] ------- [0:1 7:0 32 0] [9] 0 0
r 5.135000000 _0_ RTR  --- 9 cbr 500 [0 0 0 0] ------- [0:1 7:0 32 0] [9] 0 0
s 5.135000000 _0_ RTR  --- 9 cbr 520 [0 0 0 0] ------- [0:1 7:0 30 2] [9] 0 0
s 5.135215000 _0_ MAC  --- 9 cbr 578 [dd 2 0 800] ------- [0:1 7:0 30 2] [9] 0 0
r 5.135489700 _2_ MAC  --- 9 cbr 520 [dd 2 0 800] ------- [0:1 7:0 30 2] [9] 1 0
s 5.135499700 _2_ MAC  --- 0 ACK 38 [0 0 0 0] 
r 5.135514700 _2_ RTR  --- 9 cbr 520 [dd 2 0 800] ------- [0:1 7:0 30 2] [9] 1 0
f 5.135514700 _2_ RTR  --- 9 cbr 520 [dd 2 0 800] ------- [0:1 7:0 29 6] [9] 1 0
r 5.135710993 _0_ MAC  --- 0 ACK 38 [0 0 0 0] 
s 5.135860367 _2_ MAC  --- 9 cbr 578 [dd 6 2 800] ------- [0:1 7:0 29 6] [9] 1 0
r 5.136135274 _6_ MAC  --- 9 cbr 520 [dd 6 2 800] ------- [0:1 7:0 29 6] [9] 2 0
s 5.136145274 _6_ MAC  --- 0 ACK 38 [0 2 0 0] 
r 5.136160274 _6_ RTR  --- 9 cbr 520 [dd 6 2 800] ------- [0:1 7:0 29 6] [9] 2 0
f 5.136160274 _6_ RTR  --- 9 cbr 520 [dd 6 2 800] ------- [0:1 7:0 28 7] [9] 2 0
r 5.136356774 _2_ MAC  --- 0 ACK 38 [0 2 0 0] 
s 5.136745941 _6_ MAC  --- 9 cbr 578 [dd 7 6 800] ------- [0:1 7:0 28 7] [9] 2 0
r 5.137020848 _7_ MAC  --- 9 cbr 520 [dd 7 6 800] ------- [0:1 7:0 28 7] [9] 3 0
s 5.137030848 _7_ MAC  --- 0 ACK 38 [0 6 0 0] 
r 5.137045848 _7_ AGT  --- 9 cbr 520 [dd 7 6 800] ------- [0:1 7:0 28 7] [9] 3 0
r 5.137242348 _6_ MAC  --- 0 ACK 38 [0 6 0 0] 
s 5.150000000 _0_ AGT  --- 10 cbr 500 [0 0 0 0] ------- [0:1 7:0 32 0] [10] 0 0
r 5.150000000 _0_ RTR  --- 10 cbr 500 [0 0 0 0] ------- [0:1 7:0 32 0] [10] 0 0
s 5.150000000 _0_ RTR  --- 10 cbr 520 [0 0 0 0] ------- [0:1 7:0 30 2] [10] 0 0
s 5.150235000 _0_ MAC  --- 10 cbr 578 [dd 2 0 800] ------- [0:1 7:0 30 2] [10] 0 0
r 5.150509700 _2_ MAC  --- 10 cbr 520 [dd 2 0 800] ------- [0:1 7:0 30 2] [10] 1 0
s 5.150519700 _2_ MAC  --- 0 ACK 38 [0 0 0 0] 
r 5.150534700 _2_ RTR  --- 10 cbr 520 [dd 2 0 800] ------- [0:1 7:0 30 2] [10] 1 0
f 5.150534700 _2_ RTR  --- 10 cbr 520 [dd 2 0 800] ------- [0:1 7:0 29 6] [10] 1 0
r 5.150730993 _0_ MAC  --- 0 ACK 38 [0 0 0 0] 
s 5.150780367 _2_ MAC  --- 10 cbr 578 [dd 6 2 800] ------- [0:1 7:0 29 6] [10] 1 0
r 5.151055274 _6_ MAC  --- 10 cbr 520 [dd 6 2 800] ------- [0:1 7:0 29 6] [10] 2 0
s 5.151065274 _6_ MAC  --- 0 ACK 38 [0 2 0 0] 
r 5.151080274 _6_ RTR  --- 10 cbr 520 [dd 6 2 800] ------- [0:1 7:0 29 6] [10] 2 0
f 5.151080274 _6_ RTR  --- 10 cbr 520 [dd 6 2 800] ------- [0:1 7:0 28 7] [10] 2 0
r 5.151276774 _2_ MAC  --- 0 ACK 38 [0 2 0 0] 
s 5.151585941 _6_ MAC  --- 10 cbr 578 [dd 7 6 800] ------- [0:1 7:0 28 7] [10] 2 0
r 5.151860848 _7_ MAC  --- 10 cbr 520 [dd 7 6 800] ------- [0:1 7:0 28 7] [10] 3 0
s 5.151870848 _7_ MAC  --- 0 ACK 38 [0 6 0 0] 
r 5.151885848 _7_ AGT  --- 10 cbr 520 [dd 7 6 800] ------- [0:1 7:0 28 7] [10] 3 0
r 5.152082348 _6_ MAC  --- 0 ACK 38 [0 6 0 0] 
s 5.165000000 _0_ AGT  --- 11 cbr 500 [0 0 0 0] ------- [0:1 7:0 32 0] [11] 0 0
r 5.165000000 _0_ RTR  --- 11 cbr 500 [0 0 0 0] ------- [0:1 7:0 32 0] [11] 0 0
s 5.165000000 _0_ RTR  --- 11 cbr 520 [0 0 0 0] ------- [0:1 7:0 30 2] [11] 0 0
s 5.165255000 _0_ MAC  --- 11 cbr 578 [dd 2 0 800] ------- [0:1 7:0 30 2] [11] 0 0
r 5.165529700 _2_ MAC  --- 11 cbr 520 [dd 2 0 800] ------- [0:1 7:0 30 2] [11] 1 0
s 5.165539700 _2_ MAC  --- 0 ACK 38 [0 0 0 0] 
r 5.165554700 _2_ RTR  --- 11 cbr 520 [dd 2 0 800] ------- [0:1 7:0 30 2] [11] 1 0
f 5.165554700 _2_ RTR  --- 11 cbr 520 [dd 2 0 800] ------- [0:1 7:0 29 6] [11] 1 0
r 5.165750993 _0_ MAC  --- 0 ACK 38 [0 0 0 0] 
s 5.166340367 _2_ MAC  --- 11 cbr 578 [dd 6 2 800] ------- [0:1 7:0 29 6] [11] 1 0
r 5.166615274 _6_ MAC  --- 11 cbr 520 [dd 6 2 800] ------- [0:1 7:0 29 6] [11] 2 0
s 5.166625274 _6_ MAC  --- 0 ACK 38 [0 2 0 0] 
r 5.166640274 _6_ RTR  --- 11 cbr 520 [dd 6 2 800] ------- [0:1 7:0 29 6] [11] 2 0
f 5.166640274 _6_ RTR  --- 11 cbr 520 [dd 6 2 800] ------- [0:1 7:0 28 7] [11] 2 0
r 5.166836774 _2_ MAC  --- 0 ACK 38 [0 2 0 0] 
s 5.167405941 _6_ MAC  --- 11 cbr 578 [dd 7 6 800] ------- [0:1 7:0 28 7] [11] 2 0
r 5.167680848 _7_ MAC  --- 11 cbr 520 [dd 7 6 800] ------- [0:1 7:0 28 7] [11] 3 0
s 5.167690848 _7_ MAC  --- 0 ACK 38 [0 6 0 0] 
r 5.167705848 _7_ AGT  --- 11 cbr 520 [dd 7 6 800] ------- [0:1 7:0 28 7] [11] 3 0
r 5.167902348 _6_ MAC  --- 0 ACK 38 [0 6 0 0] 
s 5.180000000 _0_ AGT  --- 12 cbr 500 [0 0 0 0] ------- [0:1 7:0 32 0] [12] 0 0
r 5.180000000 _0_ RTR  --- 12 cbr 500 [0 0 0 0] ------- [0:1 7:0 32 0] [12] 0 0
s 5.180000000 _0_ RTR  --- 12 cbr 520 [0 0 0 0] ------- [0:1 7:0 30 2] [12] 0 0
s 5.180115000 _0_ MAC  --- 12 cbr 578 [dd 2 0 800] ------- [0:1 7:0 30 2] [12] 0 0
r 5.180389700 _2_ MAC  --- 12 cbr 520 [dd 2 0 800] ------- [0:1 7:0 30 2] [12] 1 0
s 5.180399700 _2_ MAC  --- 0 ACK 38 [0 0 0 0] 
r 5.180414700 _2_ RTR  --- 12 cbr 520 [dd 2 0 800] ------- [0:1 7:0 30 2] [12] 1 0
f 5.180414700 _2_ RTR  --- 12 cbr 520 [dd 2 0 800] ------- [0:1 7:0 29 6] [12] 1 0
r 5.180610993 _0_ MAC  --- 0 ACK 38 [0 0 0 0] 
s 5.180740367 _2_ MAC  --- 12 cbr 578 [dd 6 2 800] ------- [0:1 7:0 29 6] [12] 1 0
r 5.181015274 _6_ MAC  --- 12 cbr 520 [dd 6 2 800] ------- [0:1 7:0 29 6] [12] 2 0
s 5.181025274 _6_ MAC  --- 0 ACK 38 [0 2 0 0] 
r 5.181040274 _6_ RTR  --- 12 cbr 520 [dd 6 2 800] ------- [0:1 7:0 29 6] [12] 2 0
f 5.181040274 _6_ RTR  --- 12 cbr 520 [dd 6 2 800] ------- [0:1 7:0 28 7] [12] 2 0
r 5.181236774 _2_ MAC  --- 0 ACK 38 [0 2 0 0] 
s 5.181845941 _6_ MAC  --- 12 cbr 578 [dd 7 6 800] ------- [0:1 7:0 28 7] [12] 2 0
r 5.182120848 _7_ MAC  --- 12 cbr 520 [dd 7 6 800] ------- [0:1 7:0 28 7] [12] 3 0
s 5.182130848 _7_ MAC  --- 0 ACK 38 [0 6 0 0] 
r 5.182145848 _7_ AGT  --- 12 cbr 520 [dd 7 6 800] ------- [0:1 7:0 28 7] [12] 3 0
r 5.182342348 _6_ MAC  --- 0 ACK 38 [0 6 0 0] 
s 5.195000000 _0_ AGT  --- 13 cbr 500 [0 0 0 0] ------- [0:1 7:0 32 0] [13] 0 0
r 5.195000000 _0_ RTR  --- 13 cbr 500 [0 0 0 0] ------- [0:1 7:0 32 0] [13] 0 0
s 5.195000000 _0_ RTR  --- 13 cbr 520 [0 0 0 0] ------- [0:1 7:0 30 2] [13] 0 0
s 5.195335000 _0_ MAC  --- 13 cbr 578 [dd 2 0 800] ------- [0:1 7:0 30 2] [13] 0 0
r 5.195609700 _2_ MAC  --- 13 cbr 520 [dd 2 0 800] ------- [0:1 7:0 30 2] [13] 1 0
s 5.195619700 _2_ MAC  --- 0 ACK 38 [0 0 0 0] 
r 5.195634700 _2_ RTR  --- 13 cbr 520 [dd 2 0 800] ------- [0:1 7:0 30 2] [13] 1 0
f 5.195634700 _2_ RTR  --- 13 cbr 520 [dd 2 0 800] ------- [0:1 7:0 29 6] [13] 1 0
r 5.195830993 _0_ MAC  --- 0 ACK 38 [0 0 0 0] 
s 5.196220367 _2_ MAC  --- 13 cbr 578 [dd 6 2 800] ------- [0:1 7:0 29 6] [13] 1 0
r 5.196495274 _6_ MAC  --- 13 cbr 520 [dd 6 2 800] ------- [0:1 7:0 29 6] [13] 2 0
s 5.196505274 _6_ MAC  --- 0 ACK 38 [0 2 0 0] 
r 5.196520274 _6_ RTR  --- 13 cbr 520 [dd 6 2 800] ------- [0:1 7:0 29 6] [13] 2 0
f 5.196520274 _6_ RTR  --- 13 cbr 520 [dd 6 2 800] ------- [0:1 7:0 28 7] [13] 2 0
r 5.196716774 _2_ MAC  --- 0 ACK 38 [0 2 0 0] 
s 5.197325941 _6_ MAC  --- 13 cbr 578 [dd 7 6 800] ------- [0:1 7:0 28 7] [13] 2 0
r 5.197600848 _7_ MAC  --- 13 cbr 520 [dd 7 6 800] ------- [0:1 7:0 28 7] [13] 3 0
s 5.197610848 _7_ MAC  --- 0 ACK 38 [0 6 0 0] 
r 5.197625848 _7_ AGT  --- 13 cbr 520 [dd 7 6 800] ------- [0:1 7:0 28 7] [13] 3 0
r 5.197822348 _6_ MAC  --- 0 ACK 38 [0 6 0 0] 
s 5.210000000 _0_ AGT  --- 14 cbr 500 [0 0 0 0] ------- [0:1 7:0 32 0] [14] 0 0
r 5.210000000 _0_ RTR  --- 14 cbr 500 [0 0 0 0] ------- [0:1 7:0 32 0] [14] 0 0